file 23760712 1668480151                                        
version 3
run Myned-0-20221115-10:42:20-9724
attr configname Myned
attr datetime 20221115-10:42:20
attr datetimef 20221115-104220
attr experiment Myned
attr inifile omnetpp.ini
attr iterationvars ""
attr iterationvarsd ""
attr iterationvarsf ""
attr measurement ""
attr network networks.Myned
attr processid 9724
attr repetition 0
attr replication #0
attr resultdir results
attr runnumber 0
attr seedset 0
config network networks.Myned
config **.destAddresses "\"0 1 2\""
config **.sendIaTime uniform(1ms,5ms)
config **.frameCapacity 3
config **.appType "\"App\""
config **.app.packetLength "4096 bytes"

vector 0 Myned.rte[0].app sendCount:vector ETV
attr interpolationmode none
attr recordingmode vector
attr title "send count"
vector 1 Myned.rte[0].app receiveCount:vector ETV
attr interpolationmode none
attr recordingmode vector
attr title "receive count"
vector 2 Myned.rte[1].app sendCount:vector ETV
attr interpolationmode none
attr recordingmode vector
attr title "send count"
vector 3 Myned.rte[1].app receiveCount:vector ETV
attr interpolationmode none
attr recordingmode vector
attr title "receive count"
vector 4 Myned.rte[2].app sendCount:vector ETV
attr interpolationmode none
attr recordingmode vector
attr title "send count"
vector 5 Myned.rte[2].app receiveCount:vector ETV
attr interpolationmode none
attr recordingmode vector
attr title "receive count"
4	1422 898065 7 298902 0.00386075746 98.168747472719 32768 1 1 32768 32768
2	899487 898378 4 299758 0.003371378466 98.442480610376 32768 1 1 32768 32768
0	1797865 898510 1 300410 0.003195254009 98.658699282579 32768 1 1 32768 32768
4	2696375 946069 298908 598635 98.173373944723 196.340825383765 32768 1 1 32768 32768
2	3642444 946185 299764 598677 98.444333967451 196.353904898417 32768 1 1 32768 32768
0	4588629 946124 300422 600953 98.661735085372 197.099059022758 32768 1 1 32768 32768
1	5534753 929730 3 869892 0.003195254009 285.33395318957 32768 1 1 32768 32768
3	6464483 929958 6 876448 0.003371378466 287.501024636966 32768 1 1 32768 32768
5	7394441 930064 9 880745 0.00386075746 288.919506238156 32768 1 1 32768 32768
2	8324505 946566 598692 898031 196.358679626939 294.565052017176 32768 1 1 32768 32768
4	9271071 946661 598641 898182 196.342027556691 294.614844947784 32768 1 1 32768 32768
0	10217732 946593 600959 901052 197.10041751019 295.545654510981 32768 1 1 32768 32768
4	11164325 968156 898200 1197500 294.617930572119 392.729283704704 32768 1 1 32768 32768
2	12132481 968314 898040 1197797 294.569644960873 392.832732401253 32768 1 1 32768 32768
0	13100795 968726 901061 1201113 295.548237957321 393.923626985796 32768 1 1 32768 32768
2	14069521 979434 1197803 1497425 392.835481017259 491.184102337211 32768 1 1 32768 32768
4	15048955 979437 1197509 1497816 392.731853066299 491.314584070237 32768 1 1 32768 32768
0	16028392 979368 1201122 1500374 393.927229054402 492.155284796274 32768 1 1 32768 32768
1	17007760 974621 869898 1740665 285.337133248857 570.980076472978 32768 1 1 32768 32768
3	17982381 974857 876469 1755115 287.50874028151 575.729485140825 32768 1 1 32768 32768
5	18957238 974991 880760 1757248 288.924759060148 576.431171486084 32768 1 1 32768 32768
2	19932229 979341 1497434 1796435 491.186925653283 589.27760337537 32768 1 1 32768 32768
4	20911570 979412 1497834 1797879 491.318915255976 589.744014316826 32768 1 1 32768 32768
0	21890982 979440 1500383 1800336 492.158500928444 590.552587052658 32768 1 1 32768 32768
0	22870422 174998 1800354 1853696 590.55709118743 608.081774090028 5856 1 1 5856 5856
1	23045420 126149 1740698 1853665 570.991929181384 608.069580035425 4221 1 1 4221 4221
2	23171569 186775 1796441 1853693 589.279869671041 608.079646031074 6249 1 1 6249 6249
3	23358344 112023 1755136 1853695 575.73683995321 608.079646031074 3748 1 1 3748 3748
4	23470367 181637 1797885 1853690 589.746054096872 608.079399885608 6077 1 1 6077 6077
5	23652004 108706 1757281 1853686 576.443093973903 608.076095031585 3636 1 1 3636 3636

