version 3
run Net60a-0-20220923-17:17:07-4508
attr configname Net60a
attr datetime 20220923-17:17:07
attr datetimef 20220923-171707
attr experiment Net60a
attr inifile omnetpp.ini
attr iterationvars ""
attr iterationvarsd ""
attr iterationvarsf ""
attr measurement ""
attr network networks.Net60a
attr processid 4508
attr repetition 0
attr replication #0
attr resultdir results
attr runnumber 0
attr seedset 0
config network networks.Net60a
config **.destAddresses "\"1\""
config **.sendIaTime uniform(1ms,5ms)
config **.frameCapacity 3
config **.appType "\"App\""
config **.app.packetLength "4096 bytes"

vector 0 Net60a.rte[1].app endToEndDelay:vector ETV
attr interpolationmode none
attr recordingmode vector
attr title "end-to-end delay of arrived packets"
attr unit s
0	96	0.003371378466	0
0	238	0.005502606304	0
0	452	0.009318160646	0
0	600	0.011740611586	0
0	678	0.012962108853	0
0	928	0.017578044659	0
0	1028	0.01910320198	0
0	1212	0.022592126225	0
0	1423	0.02614245701	0
0	1640	0.029812830235	0
0	1876	0.033724382862	0
0	2084	0.037598888427	0
0	2272	0.04050018755	0
0	2332	0.041775709391	0
0	2577	0.045970466385	0
0	2664	0.047174678645	0
0	2781	0.049394865443	0
0	3002	0.05306371845	0
0	3075	0.054185424504	0
0	3204	0.056803997797	0
0	3292	0.058199037349	0
0	3485	0.061752488925	0
0	3636	0.064340025641	0
0	3702	0.06540297859	0
0	3862	0.068123702013	0
0	4003	0.070382633098	0
0	4202	0.073951750422	0
0	4407	0.077251711734	0
0	4467	0.0783708699	0
0	4648	0.081618300371	0
0	4850	0.085304010559	0
0	5113	0.089627645767	0
0	5219	0.091236854598	0
0	5324	0.093107138996	0
0	5566	0.097206354429	0
0	5843	0.1022062105	0
0	5943	0.103718022069	0
0	6146	0.107003544355	0
0	6364	0.110766589455	0
0	6566	0.11444942929	0
0	6693	0.116109861799	0
0	6744	0.117216746267	0
0	6994	0.121762766872	0
0	7238	0.126310740084	0
0	7353	0.127890802415	0
0	7440	0.129666933746	0
0	7642	0.133175666671	0
0	7932	0.138092640169	0
0	8197	0.142643119965	0
0	8312	0.144515493382	0
0	8556	0.148801254565	0
0	8810	0.152990468573	0
0	9051	0.156986614553	0
0	9256	0.16057070441	0
0	9368	0.162569787985	0
0	9545	0.165498760793	0
0	9808	0.169461106673	0
0	9862	0.17051820084	0
0	10141	0.174962278605	0
0	10331	0.178335078686	0
0	10482	0.18097117157	0
0	10527	0.182036652179	0
0	10717	0.185153864894	0
0	10940	0.189433700434	0
0	11124	0.192845547176	0
0	11242	0.195111115046	0
0	11371	0.197294019351	0
0	11423	0.198358953973	0
0	11620	0.202006398758	0
0	11695	0.203127642498	0
0	11774	0.20441389261	0
0	11868	0.206066188666	0
0	11961	0.207581892289	0
0	12042	0.209145647436	0
0	12314	0.214013354224	0
0	12597	0.218775312829	0
0	12688	0.220469747459	0
0	12754	0.221487605826	0
0	12917	0.224210211636	0
0	12980	0.225348335862	0
0	13165	0.22847176115	0
0	13376	0.232101685254	0
0	13484	0.234045820467	0
0	13620	0.236014259946	0
0	13819	0.239324454862	0
0	13997	0.242757268664	0
0	14157	0.245463276257	0
0	14220	0.246530840223	0
0	14390	0.249319823774	0
0	14490	0.250812375011	0
0	14607	0.252702685098	0
0	14876	0.257268202543	0
0	15093	0.261441296788	0
0	15275	0.264892890732	0
0	15432	0.267076232255	0
0	15670	0.271366970478	0
0	15887	0.274736085228	0
0	16005	0.2771476919	0
0	16179	0.280073195267	0
0	16288	0.282068582081	0
0	16453	0.284571282552	0
0	16544	0.28623077342	0
0	16745	0.289818996991	0
0	16896	0.292492950167	0
0	17195	0.297372252163	0
0	17451	0.301696165299	0
0	17536	0.303031456039	0
0	17784	0.307250597377	0
0	18028	0.311335443605	0
0	18145	0.313341267061	0
0	18339	0.316630001578	0
0	18530	0.319915706684	0
0	18620	0.321339961143	0
0	18786	0.323855893293	0
0	18997	0.327954878606	0
0	19332	0.332738432061	0
0	19528	0.335782526155	0
0	19800	0.340235420731	0
0	20089	0.344918676495	0
0	20327	0.348857537214	0
0	20518	0.350875254009	0.34768
0	20521	0.350883829332	0
0	20548	0.351091053482	0.34768
0	20593	0.35154075746	0.34768
0	20636	0.351892830905	0
0	20796	0.354244584034	0
0	20898	0.355907371972	0
0	21161	0.360375766716	0
0	21417	0.364414110263	0
0	21586	0.367146330759	0
0	21813	0.370763292053	0
0	21876	0.371965607428	0
0	21995	0.374010880004	0
0	22133	0.376089253691	0
0	22369	0.380065060643	0
0	22548	0.383109693992	0
0	22672	0.385156280696	0
0	22831	0.387911090562	0
0	23027	0.391314446023	0
0	23295	0.396004355199	0
0	23368	0.397276665706	0
0	23489	0.399394839136	0
0	23620	0.401590912136	0
0	23737	0.403023875843	0
0	23964	0.407400912689	0
0	24174	0.411142326818	0
0	24271	0.412655905678	0
0	24433	0.415437727447	0
0	24731	0.420403743568	0
0	24828	0.421875887172	0
0	24963	0.424521171896	0
0	25262	0.429170902168	0
0	25340	0.430688002853	0
0	25397	0.431855093324	0
0	25548	0.434095540901	0
0	25719	0.436874669678	0
0	25834	0.438593981637	0
0	25924	0.439965844044	0
0	26214	0.444868884871	0
0	26416	0.448021619022	0
0	26609	0.451741805915	0
0	26733	0.454050232797	0
0	26968	0.4579979033	0
0	27061	0.459672023064	0
0	27131	0.460914350749	0
0	27270	0.462886552213	0
0	27533	0.467258026059	0
0	27648	0.468877424124	0
0	27877	0.472521703503	0
0	28103	0.476715338403	0
0	28314	0.480243275826	0
0	28444	0.482067316284	0
0	28498	0.483111335937	0
0	28671	0.485839518813	0
0	28947	0.490100877782	0
0	29227	0.495045467939	0
0	29495	0.499763449714	0
0	29607	0.50169365538	0
0	29716	0.503250323757	0
0	29882	0.506240505375	0
0	30159	0.510930010769	0
0	30232	0.512305206213	0
0	30385	0.514720825553	0
0	30654	0.519577623309	0
0	30762	0.521524559972	0
0	30922	0.524272664194	0
0	31025	0.526114348323	0
0	31088	0.527256714758	0
0	31273	0.530158485462	0
0	31378	0.531975529469	0
0	31579	0.535740022357	0
0	31778	0.538899561789	0
0	31941	0.541660179624	0
0	32104	0.544553644152	0
0	32216	0.546214224382	0
0	32454	0.550337782628	0
0	32547	0.552207671647	0
0	32710	0.554463925678	0
0	32873	0.557428269034	0
0	33032	0.559994289104	0
0	33244	0.563808314075	0
0	33449	0.567445583658	0
0	33648	0.570803158574	0
0	33717	0.57184145153	0
0	33892	0.574936739231	0
0	34019	0.576903920562	0
0	34312	0.581583260491	0
0	34369	0.582834793517	0
0	34523	0.585546285335	0
0	34726	0.588368362594	0
0	34937	0.592833508892	0
0	35088	0.595329182453	0
0	35163	0.596554730398	0
0	35377	0.600464548568	0
0	35561	0.603688305203	0
0	35745	0.606793677834	0
0	35889	0.609326656439	0
0	36166	0.613794386476	0
0	36444	0.618535221358	0
0	36586	0.621501601491	0
0	36873	0.626101094091	0
0	37145	0.630306345354	0
0	37254	0.631976933825	0
0	37374	0.633784190982	0
0	37588	0.637549578087	0
0	37643	0.638883592489	0
0	37787	0.641176836885	0
0	38008	0.645068057592	0
0	38223	0.64873443051	0
0	38406	0.652180673599	0
0	38554	0.654389514323	0
0	38671	0.656322943125	0
0	38998	0.660678985937	0
0	39122	0.662762488326	0
0	39402	0.667431971912	0
0	39562	0.669976220064	0
0	39682	0.672121950972	0
0	39936	0.67646910299	0
0	40123	0.678555254009	0.674520791527
0	40147	0.678771053482	0.672922222124
0	40199	0.67922075746	0.673249125744
0	40365	0.681082800166	0
0	40473	0.683110135058	0
0	40732	0.687388636319	0
0	40838	0.689040264892	0
0	41028	0.692692822751	0
0	41275	0.696955272978	0
0	41419	0.699523877979	0
0	41561	0.701724551467	0
0	41694	0.704476003458	0
0	41983	0.709052429025	0
0	42240	0.713312318563	0
0	42436	0.716844140801	0
0	42624	0.720290607026	0
0	42762	0.722865735815	0
0	42905	0.725043183278	0
0	43120	0.728416685374	0
0	43358	0.733230047393	0
0	43518	0.735871004554	0
0	43648	0.738099605883	0
0	43838	0.741536438798	0
0	44101	0.745850658519	0
0	44378	0.750761521758	0
0	44605	0.754745311018	0
0	44855	0.759217301483	0
0	45102	0.763182895194	0
0	45218	0.765266902018	0
0	45463	0.769178868503	0
0	45566	0.770766520695	0
0	45659	0.772627326847	0
0	45810	0.775246586134	0
0	46063	0.779881542716	0
0	46172	0.782002181408	0
0	46413	0.786042932933	0
0	46527	0.788076493453	0
0	46648	0.790301706379	0
0	46747	0.791758263592	0
0	46798	0.79276724709	0
0	46959	0.795592020773	0
0	47128	0.79833828378	0
0	47248	0.80086891709	0
0	47498	0.80529802488	0
0	47583	0.806778390756	0
0	47668	0.807995871815	0
0	47943	0.812778994595	0
0	48066	0.814814193539	0
0	48181	0.816694608674	0
0	48479	0.821514128269	0
0	48690	0.825466060323	0
0	48936	0.829579703601	0
0	49074	0.831849755675	0
0	49345	0.836528623905	0
0	49578	0.840123434062	0
0	49687	0.842074340424	0
0	49794	0.843849647892	0
0	49870	0.845008541435	0
0	50026	0.847783865177	0
0	50210	0.851069108445	0
0	50289	0.852200192937	0
0	50373	0.85412246906	0
0	50454	0.855423185719	0
0	50720	0.859755171059	0
0	50816	0.861583655867	0
0	50967	0.864170691948	0
0	51076	0.865916463461	0
0	51257	0.868615675401	0
0	51405	0.871337860056	0
0	51568	0.874153967712	0
0	51694	0.876178763349	0
0	51788	0.877687124134	0
0	51863	0.879051901631	0
0	52020	0.881548097113	0
0	52092	0.882880385892	0
0	52348	0.887530621908	0
0	52652	0.892527656525	0
0	52755	0.894529942092	0
0	52843	0.895866819235	0
0	53035	0.899597414521	0
0	53096	0.900735564322	0
0	53385	0.905529225139	0
0	53596	0.909351008535	0
0	53732	0.911828512498	0
0	53825	0.913390296853	0
0	54010	0.91671664626	0
0	54094	0.917964625827	0
0	54263	0.921001236521	0
0	54435	0.923957650614	0
0	54501	0.925012637824	0
0	54736	0.929434091971	0
0	54972	0.933249168867	0
0	55106	0.935384286234	0
0	55154	0.936399142775	0
0	55377	0.940323942813	0
0	55518	0.942636970406	0
0	55753	0.946591586117	0
0	56004	0.95103892588	0
0	56131	0.952948771432	0
0	56221	0.954599260542	0
0	56378	0.957231581275	0
0	56547	0.960078756676	0
0	56810	0.964447819527	0
0	57051	0.968724546127	0
0	57241	0.971957176769	0
0	57491	0.976630631387	0
0	57693	0.979718527698	0
0	57790	0.981400112964	0
0	57987	0.984584250603	0
0	58248	0.988077686682	0
0	58372	0.990065973376	0
0	58581	0.993928056318	0
0	58687	0.995584581573	0
0	58805	0.99712121857	0
0	58871	0.998701397949	0
0	58974	1.000328736669	0
0	59058	1.001657284995	0
0	59387	1.006235254009	1.000001502513
0	59420	1.006451053482	0.996237661605
0	59435	1.006536287889	0
0	59468	1.00690075746	0.996456621502
0	59608	1.008624341741	0
0	59729	1.010667921135	0
0	59868	1.012683060518	0
0	59956	1.014297919933	0
0	60031	1.015627282077	0
0	60182	1.018513373858	0
0	60405	1.022074195919	0
0	60660	1.026498202011	0
0	60744	1.027806767568	0
0	61004	1.032344177274	0
0	61140	1.034345580324	0
0	61384	1.038384057802	0
0	61478	1.039526015305	0
0	61665	1.043254037017	0
0	61831	1.045999693617	0
0	62052	1.049613464826	0
0	62212	1.052680763944	0
0	62387	1.055372339058	0
0	62640	1.059802368175	0
0	62929	1.064613902129	0
0	63186	1.069291388565	0
0	63252	1.070410073968	0
0	63542	1.075295672442	0
0	63714	1.078316954919	0
0	63838	1.080725322823	0
0	63947	1.082278730551	0
0	64132	1.085220020046	0
0	64325	1.088620465465	0
0	64440	1.090519238	0
0	64711	1.095320004524	0
0	64802	1.096780203616	0
0	65007	1.100331376367	0
0	65097	1.102023843153	0
0	65263	1.104856188529	0
0	65381	1.10684781072	0
0	65516	1.109195119627	0
0	65713	1.112447195826	0
0	65803	1.11385397737	0
0	66008	1.11761758954	0
0	66204	1.120947713533	0
0	66276	1.121960693222	0
0	66463	1.125139405618	0
0	66741	1.130006786633	0
0	66970	1.133831805981	0
0	67236	1.138585541948	0
0	67489	1.143057023546	0
0	67561	1.144251404723	0
0	67761	1.147993875882	0
0	67990	1.15159961111	0
0	68258	1.156367063244	0
0	68490	1.160104850425	0
0	68626	1.16274809049	0
0	68865	1.167101159956	0
0	69062	1.170477611502	0
0	69219	1.172793736738	0
0	69497	1.177403080959	0
0	69620	1.179582282075	0
0	69877	1.184078837698	0
0	70131	1.188625923185	0
0	70300	1.191534996803	0
0	70541	1.196062143864	0
0	70735	1.198914871494	0
0	70802	1.20005133941	0
0	70967	1.202925356388	0
0	71046	1.204165028408	0
0	71323	1.208852972829	0
0	71519	1.212411913606	0
0	71781	1.216903131138	0
0	71854	1.218012190171	0
0	71950	1.219553782358	0
0	72167	1.223486241763	0
0	72450	1.227903216353	0
0	72656	1.231888957361	0
0	72879	1.235526580776	0
0	73020	1.238079142637	0
0	73228	1.241711702121	0
0	73434	1.245257278474	0
0	73699	1.249897743151	0
0	73929	1.253090656179	0
0	74055	1.255343000052	0
0	74212	1.257971127139	0
0	74501	1.262741992317	0
0	74592	1.264316385512	0
0	74839	1.268509083516	0
0	75113	1.273384883517	0
0	75339	1.277002494209	0
0	75439	1.279048344652	0
0	75644	1.282343069814	0
0	75819	1.285153086634	0
0	75966	1.287912003728	0
0	76123	1.290233141924	0
0	76264	1.292995277558	0
0	76443	1.29658528484	0
0	76521	1.297616702078	0
0	76774	1.301844450993	0
0	76838	1.302854422058	0
0	77031	1.306189940043	0
0	77116	1.307420867754	0
0	77194	1.308889014518	0
0	77485	1.313484127447	0
0	77807	1.31845132643	0
0	78057	1.322627365112	0
0	78280	1.326514085312	0
0	78491	1.330265544302	0
0	78727	1.333360507259	0
0	78797	1.333915254009	1.327723167163
0	78827	1.334131053482	1.322661840542
0	78866	1.33458075746	1.322209815
0	79078	1.337140795383	0
0	79318	1.341599962735	0
0	79571	1.34616656629	0
0	79756	1.348913120301	0
0	79910	1.35183937058	0
0	80120	1.355961565368	0
0	80340	1.359921719007	0
0	80482	1.362233810235	0
0	80638	1.364574895065	0
0	80717	1.366411983985	0
0	80988	1.371057608393	0
0	81081	1.372323873136	0
0	81205	1.374651406193	0
0	81422	1.378546765717	0
0	81503	1.380203461621	0
0	81694	1.38357065011	0
0	81857	1.386254786657	0
0	82152	1.390872481518	0
0	82242	1.392708521123	0
0	82381	1.3951923216	0
0	82529	1.397829254179	0
0	82830	1.402816611759	0
0	83024	1.405933630989	0
0	83272	1.410291213499	0
0	83396	1.412619489697	0
0	83559	1.415025255829	0
0	83634	1.416386802379	0
0	83719	1.417491440625	0
0	83782	1.418919429013	0
0	84020	1.423518826792	0
0	84180	1.425797926187	0
0	84454	1.430401760294	0
0	84677	1.434223934623	0
0	84954	1.439192731738	0
0	85172	1.442572375686	0
0	85319	1.445270278089	0
0	85383	1.446345040401	0
0	85588	1.449331703524	0
0	85853	1.453916204613	0
0	86141	1.458411934104	0
0	86307	1.461780625624	0
0	86415	1.463428180384	0
0	86560	1.466343500962	0
0	86657	1.467913294057	0
0	86792	1.470109656687	0
0	86858	1.471220334456	0
0	87057	1.474586494661	0
0	87220	1.477376667097	0
0	87322	1.478956213488	0
0	87591	1.483605864703	0
0	87844	1.487735516181	0
0	88019	1.490933664575	0
0	88160	1.493291142388	0
0	88323	1.496049378804	0
0	88516	1.499284471236	0
0	88785	1.504160602412	0
0	88926	1.50664486733	0
0	89134	1.510287683409	0
0	89397	1.514442707766	0
0	89460	1.515600509348	0
0	89541	1.516735556622	0
0	89686	1.519426201447	0
0	89954	1.523665340469	0
0	90241	1.528461281019	0
0	90440	1.531895761548	0
0	90609	1.534811996738	0
0	90841	1.539025788852	0
0	90971	1.541361775308	0
0	91191	1.544823439811	0
0	91455	1.549248446981	0
0	91533	1.550300674122	0
0	91790	1.555257969934	0
0	92022	1.559257378277	0
0	92164	1.561452058811	0
0	92348	1.564658373784	0
0	92408	1.565670393686	0
0	92631	1.569455006212	0
0	92854	1.573515486915	0
0	92978	1.575361388392	0
0	93089	1.577097285505	0
0	93304	1.580701135001	0
0	93386	1.582097602579	0
0	93494	1.584182216197	0
0	93775	1.588951064542	0
0	93995	1.592411090925	0
0	94098	1.5937085259	0
0	94309	1.59774483277	0
0	94574	1.602047344523	0
0	94679	1.604049249647	0
0	94773	1.605545932961	0
0	95011	1.609464895258	0
0	95092	1.610659143607	0
0	95315	1.614491442341	0
0	95580	1.619342325155	0
0	95852	1.623538056565	0
0	95942	1.625153886837	0
0	96033	1.626857288883	0
0	96163	1.628818493816	0
0	96250	1.630147149266	0
0	96497	1.634684251787	0
0	96706	1.638314854427	0
0	96760	1.639326486147	0
0	96891	1.641198591975	0
0	96969	1.642224615835	0
0	97075	1.643897907489	0
0	97234	1.646308654972	0
0	97370	1.648822019855	0
0	97481	1.650405686814	0
0	97574	1.652107378784	0
0	97704	1.654113985252	0
0	97809	1.655893500168	0
0	98023	1.659606991819	0
0	98214	1.661595254009	1.330076646139
0	98244	1.661811053482	1.330421573709
0	98283	1.66226075746	1.328240210749
0	98470	1.664222896074	0
0	98708	1.668495142405	0
0	98917	1.672184817121	0
0	99061	1.674472213368	0
0	99137	1.675656890642	0
0	99421	1.680551268756	0
0	99641	1.68447966233	0
0	99883	1.688631299254	0
0	100103	1.692540075636	0
0	100332	1.696120823347	0
0	100453	1.698180272828	0
0	100730	1.702378742437	0
0	101011	1.707266922243	0
0	101143	1.709671627626	0
0	101330	1.712831011471	0
0	101517	1.716124512444	0
0	101674	1.719040223544	0
0	101916	1.723222053124	0
0	102087	1.726487391052	0
0	102295	1.730097748286	0
0	102440	1.732536905092	0
0	102705	1.736758751504	0
0	102892	1.739786120983	0
0	103067	1.742501017826	0
0	103209	1.745023787618	0
0	103293	1.74651175444	0
0	103511	1.749957291984	0
0	103795	1.754909423951	0
0	104055	1.759603057276	0
0	104163	1.761374101206	0
0	104241	1.762591148972	0
0	104347	1.764352079057	0
0	104425	1.765458972143	0
0	104690	1.770317835483	0
0	104799	1.772483603496	0
0	105068	1.7773162751	0
0	105231	1.780102906725	0
0	105391	1.782692638616	0
0	105659	1.787550411115	0
0	105906	1.791841308403	0
0	106097	1.795348163949	0
0	106314	1.798933825354	0
0	106389	1.80043212229	0
0	106516	1.802380289939	0
0	106685	1.805503628284	0
0	106917	1.809553626199	0
0	107165	1.813608894231	0
0	107231	1.814656759236	0
0	107409	1.817430457937	0
0	107623	1.821185757752	0
0	107759	1.823740379554	0
0	107813	1.824949777872	0
0	108039	1.828597932563	0
0	108150	1.830546757099	0
0	108286	1.832729065317	0
0	108476	1.835996324797	0
0	108644	1.838791390066	0
0	108876	1.843352380111	0
0	109130	1.84759111374	0
0	109233	1.849630749486	0
0	109405	1.852725702262	0
0	109694	1.857659560446	0
0	109827	1.860207681611	0
0	110014	1.863588687509	0
0	110122	1.865333637288	0
0	110197	1.867021375432	0
0	110402	1.870555019491	0
0	110622	1.874357158516	0
0	110698	1.875575780915	0
0	110870	1.87859064852	0
0	110988	1.880353408289	0
0	111066	1.881675528191	0
0	111355	1.886540818739	0
0	111515	1.889167262924	0
0	111756	1.893647882464	0
0	111886	1.89567169191	0
0	112135	1.899769259514	0
0	112308	1.902350628742	0
0	112543	1.906368400296	0
0	112820	1.910956907881	0
0	112883	1.912007002378	0
0	113155	1.916883686873	0
0	113427	1.921658128245	0
0	113542	1.923592851222	0
0	113826	1.928052498097	0
0	113895	1.929202705033	0
0	114076	1.932636962333	0
0	114337	1.936614372808	0
0	114463	1.938941078739	0
0	114680	1.942685412713	0
0	114927	1.946662792024	0
0	115219	1.951600574803	0
0	115433	1.955140757022	0
0	115535	1.957137747915	0
0	115653	1.959245599635	0
0	115746	1.960736019451	0
0	115882	1.963059259173	0
0	115969	1.964349686897	0
0	116087	1.966323706286	0
0	116197	1.967766002293	0
0	116339	1.96986273409	0
0	116499	1.971763489858	0
0	116595	1.973514505506	0
0	116704	1.975567125685	0
0	116801	1.976984113436	0
0	117033	1.980865498167	0
0	117105	1.982278329096	0
0	117352	1.986562791438	0
0	117606	1.989275254009	1.329702898841
0	117624	1.989491053482	1.327108880745
0	117663	1.98994075746	1.330521674967
0	117735	1.990545974919	0
0	117869	1.992190217612	0
0	118089	1.996398168795	0
0	118192	1.998223947189	0
0	118328	2.000350468591	0
0	118557	2.004583838178	0
0	118620	2.005596308297	0
0	118784	2.008031873272	0
0	118935	2.010686597864	0
0	119086	2.013314035917	0
0	119356	2.017653918663	0
0	119535	2.020458144777	0
0	119667	2.022912330809	0
0	119881	2.026427974809	0
0	120096	2.029825253125	0
0	120259	2.032612888744	0
0	120346	2.034296119152	0
0	120617	2.038568652517	0
0	120705	2.040099053633	0
0	120841	2.042545596751	0
0	120958	2.044564213754	0
0	121221	2.048295692697	0
0	121371	2.051149034848	0
0	121629	2.055474306454	0
0	121852	2.059803437032	0
0	121960	2.061708483603	0
0	122253	2.066515749017	0
0	122371	2.068607522828	0
0	122573	2.071695293126	0
0	122721	2.074451277894	0
0	122878	2.076778069726	0
0	123067	2.080552009037	0
0	123281	2.084052371874	0
0	123444	2.086947051142	0
0	123568	2.088873862581	0
0	123715	2.09140794285	0
0	123969	2.09591486356	0
0	124068	2.097644970836	0
0	124258	2.100977771337	0
0	124536	2.105689341464	0
0	124778	2.109635042462	0
0	124956	2.112529224893	0
0	125004	2.113591203625	0
0	125101	2.115082315157	0
0	125303	2.118200239449	0
0	125541	2.122452456884	0
0	125831	2.127403854056	0
0	126069	2.131260228472	0
0	126141	2.132669156772	0
0	126365	2.136466058268	0
0	126582	2.140532989489	0
0	126651	2.141856429191	0
0	126907	2.145931617307	0
0	127018	2.147828041328	0
0	127194	2.15115954023	0
0	127320	2.153238032016	0
0	127402	2.154782753613	0
0	127600	2.158141165784	0
0	127839	2.162035564069	0
0	128095	2.166739362774	0
0	128152	2.168051646015	0
0	128237	2.169655475386	0
0	128375	2.17193642879	0
0	128454	2.173181418925	0
0	128511	2.174208003923	0
0	128795	2.178869587261	0
0	129054	2.183115242083	0
0	129199	2.185463033976	0
0	129356	2.188207417961	0
0	129562	2.19201345854	0
0	129706	2.194842760507	0
0	129766	2.195863568358	0
0	129905	2.198079972939	0
0	130010	2.200181666486	0
0	130324	2.205035741909	0
0	130556	2.209295705443	0
0	130619	2.210390401572	0
0	130852	2.21464678442	0
0	130970	2.21650711419	0
0	131048	2.218106337041	0
0	131314	2.222870551794	0
0	131464	2.225393429581	0
0	131702	2.229490283615	0
0	131971	2.234121568621	0
0	132133	2.237063138923	0
0	132218	2.238475223258	0
0	132302	2.239782071871	0
0	132453	2.24258027502	0
0	132661	2.245985314601	0
0	132803	2.248601532563	0
0	132882	2.249884095838	0
0	133011	2.252410603092	0
0	133234	2.256159224295	0
0	133427	2.259478483922	0
0	133653	2.262989266357	0
0	133765	2.264961198705	0
0	133897	2.267847354854	0
0	134072	2.270631985922	0
0	134286	2.274508365756	0
0	134521	2.278660357754	0
0	134618	2.280017722484	0
0	134708	2.281490938498	0
0	134805	2.283132843215	0
0	134884	2.284482436695	0
0	134996	2.286167976013	0
0	135231	2.290316211916	0
0	135433	2.293859584672	0
0	135659	2.29721915212	0
0	135974	2.302004632838	0
0	136092	2.304158116435	0
0	136200	2.305584451499	0
0	136260	2.307178447722	0
0	136372	2.308915531804	0
0	136637	2.313869693132	0
0	136897	2.316955254009	1.329915608395
0	136924	2.317171053482	1.329196569963
0	136975	2.31762075746	1.329905882421
0	137103	2.318837545369	0
0	137312	2.322476128358	0
0	137456	2.324949809263	0
0	137535	2.326267618489	0
0	137795	2.330767402603	0
0	138066	2.335695605796	0
0	138281	2.339092782714	0
0	138344	2.340100245866	0
0	138440	2.341604088601	0
0	138682	2.345665641256	0
0	138754	2.347010144788	0
0	139004	2.351246244274	0
0	139267	2.355469774083	0
0	139372	2.357288275294	0
0	139511	2.359470581938	0
0	139648	2.361978405012	0
0	139886	2.36602920469	0
0	139970	2.367528908576	0
0	140042	2.368743497426	0
0	140187	2.370722202492	0
0	140385	2.374294160883	0
0	140580	2.377175193484	0
0	140653	2.37856418823	0
0	140725	2.38014243827	0
0	140924	2.383686225143	0
0	141232	2.388493726903	0
0	141489	2.39261816339	0
0	141775	2.397447659158	0
0	141902	2.399598082995	0
0	142080	2.402635025659	0
0	142321	2.407185651732	0
0	142545	2.410932978317	0
0	142756	2.41433331575	0
0	142846	2.415701294694	0
0	143003	2.418377131384	0
0	143136	2.420416671196	0
0	143360	2.424615350108	0
0	143426	2.425764739199	0
0	143656	2.429460040738	0
0	143882	2.433220920863	0
0	144036	2.435529617146	0
0	144241	2.439392946763	0
0	144500	2.443656077917	0
0	144700	2.447007762005	0
0	144766	2.448304528677	0
0	144929	2.45115516608	0
0	145158	2.454971020345	0
0	145383	2.458809623888	0
0	145582	2.462460418873	0
0	145819	2.466905476162	0
0	145946	2.468917703927	0
0	146052	2.470920884681	0
0	146157	2.472760901881	0
0	146407	2.477022379243	0
0	146673	2.48155635727	0
0	146748	2.48298867418	0
0	146811	2.484114058873	0
0	146935	2.486294302357	0
0	147113	2.488996797478	0
0	147361	2.493122862268	0
0	147566	2.496437727732	0
0	147681	2.498313211413	0
0	147747	2.499436954918	0
0	147928	2.502545384263	0
0	148157	2.506651833757	0
0	148471	2.511614087632	0
0	148643	2.51481318781	0
0	148725	2.516183134908	0
0	148806	2.5174937853	0
0	148950	2.520352116775	0
0	149041	2.521928204467	0
0	149101	2.523118236097	0
0	149176	2.52444070168	0
0	149315	2.52641394616	0
0	149489	2.529453903968	0
0	149652	2.532271968647	0
0	149839	2.535392581889	0
0	150049	2.539167828185	0
0	150152	2.54079910789	0
0	150266	2.54272823542	0
0	150421	2.545375947522	0
0	150496	2.546588920317	0
0	150729	2.550254002609	0
0	150920	2.553550158679	0
0	151065	2.556121477052	0
0	151167	2.557861710647	0
0	151348	2.560862351741	0
0	151614	2.565534235897	0
0	151798	2.568510175349	0
0	151885	2.570470480997	0
0	151994	2.572159443675	0
0	152247	2.577156504549	0
0	152548	2.582155805855	0
0	152823	2.586751295667	0
0	152973	2.589605948992	0
0	153173	2.593199408576	0
0	153397	2.596804575064	0
0	153617	2.600801770791	0
0	153864	2.604829234604	0
0	154012	2.607642079572	0
0	154148	2.609587193464	0
0	154247	2.611647584013	0
0	154447	2.61483494908	0
0	154519	2.615979155428	0
0	154603	2.617468112028	0
0	154743	2.619664683257	0
0	154875	2.621754324122	0
0	154997	2.623390220849	0
0	155082	2.62469439525	0
0	155231	2.626602599885	0
0	155346	2.628846826258	0
0	155578	2.632460938305	0
0	155629	2.633662397876	0
0	155912	2.638047746424	0
0	156196	2.64283453486	0
0	156341	2.644635254009	1.328679613779
0	156359	2.644742274944	0
0	156368	2.644851053482	1.330142989655
0	156407	2.64530075746	1.330037021993
0	156715	2.649446354623	0
0	156972	2.653864251787	0
0	157117	2.65656946796	0
0	157340	2.660338592709	0
0	157460	2.66282527535	0
0	157560	2.664357518217	0
0	157729	2.667294122496	0
0	157828	2.669007240541	0
0	158040	2.672571261504	0
0	158097	2.673703159939	0
0	158311	2.676917390789	0
0	158426	2.678842141006	0
0	158668	2.682490043836	0
0	158949	2.687060564257	0
0	159220	2.691650732906	0
0	159429	2.695484804943	0
0	159589	2.698074681809	0
0	159885	2.702535007364	0
0	160057	2.705762139605	0
0	160169	2.707644816896	0
0	160462	2.712496964493	0
0	160739	2.717390976223	0
0	160989	2.721931990629	0
0	161206	2.72583892651	0
0	161294	2.72712302156	0
0	161468	2.73027605121	0
0	161583	2.732334735786	0
0	161726	2.734168356564	0
0	161828	2.736011348813	0
0	161925	2.737393911767	0
0	162051	2.739862051897	0
0	162244	2.742786762573	0
0	162332	2.744231928569	0
0	162389	2.745265883581	0
0	162612	2.749126087332	0
0	162787	2.752640974792	0
0	163084	2.757471780133	0
0	163180	2.759435414343	0
0	163326	2.761310791262	0
0	163625	2.766251308159	0
0	163842	2.770212440616	0
0	163924	2.771337026209	0
0	164114	2.774964159568	0
0	164213	2.776709032534	0
0	164307	2.778028415607	0
0	164463	2.780622051319	0
0	164702	2.784488284749	0
0	164754	2.785518045479	0
0	164880	2.787986857712	0
0	165031	2.790165437219	0
0	165261	2.794094160457	0
0	165348	2.795592223663	0
0	165514	2.798538436993	0
0	165638	2.800473598174	0
0	165849	2.803704660069	0
0	166153	2.808558098593	0
0	166382	2.812425584796	0
0	166500	2.81447258068	0
0	166669	2.817445421931	0
0	166899	2.821345484963	0
0	167124	2.825082434001	0
0	167362	2.829261092538	0
0	167603	2.833520555868	0
0	167854	2.837737547875	0
0	168092	2.841882685022	0
0	168233	2.844356978491	0
0	168457	2.848011940397	0
0	168620	2.850864018684	0
0	168819	2.854394906026	0
0	168979	2.857382675158	0
0	169233	2.862102185018	0
0	169522	2.867052409025	0
0	169684	2.870059977581	0
0	169898	2.873918574051	0
0	170013	2.875846041366	0
0	170139	2.878168567987	0
0	170347	2.882176093014	0
0	170440	2.883635134248	0
0	170627	2.887447482894	0
0	170805	2.890318460252	0
0	170947	2.892522308037	0
0	171191	2.896955934849	0
0	171318	2.898975161635	0
0	171488	2.901733148984	0
0	171632	2.904690770283	0
0	171705	2.905758957852	0
0	171893	2.908967572892	0
0	172071	2.911668444195	0
0	172276	2.91548600146	0
0	172469	2.918620067948	0
0	172747	2.922716111636	0
0	172938	2.926103939007	0
0	173031	2.927644126877	0
0	173304	2.932063657008	0
0	173566	2.936826294488	0
0	173665	2.938813140372	0
0	173868	2.942190169959	0
0	174146	2.947153273764	0
0	174245	2.948866771455	0
0	174339	2.950411676741	0
0	174672	2.955393482703	0
0	174944	2.959998133918	0
0	175196	2.964190902288	0
0	175326	2.966256203175	0
0	175452	2.968702307133	0
0	175742	2.972315254009	1.328918703096
0	175763	2.972531053482	1.330153971438
0	175808	2.97298075746	1.330158560866
0	175841	2.973326159724	0
0	176008	2.975246454362	0
0	176215	2.978413712216	0
0	176336	2.980916273418	0
0	176459	2.983020264884	0
0	176688	2.987294031653	0
0	176818	2.989206224076	0
0	177071	2.993385464164	0
0	177204	2.995741371922	0
0	177467	3.000443592103	0
0	177548	3.001838391782	0
0	177786	3.00603340745	0
0	178042	3.010679562643	0
0	178274	3.014892397953	0
0	178407	3.017573104013	0
0	178661	3.021594565732	0
0	178860	3.024933371938	0
0	179101	3.029635247692	0
0	179210	3.031479993619	0
0	179430	3.035280905191	0
0	179648	3.038743605886	0
0	179844	3.042019845597	0
0	180112	3.046481666407	0
0	180191	3.047550843677	0
0	180309	3.049854540214	0
0	180414	3.051746328355	0
0	180559	3.054618334346	0
0	180686	3.056423030073	0
0	180928	3.060628546922	0
0	181184	3.065207236291	0
0	181393	3.068308855674	0
0	181670	3.07309224493	0
0	181863	3.076070084717	0
0	181980	3.078188408026	0
0	182095	3.079989087337	0
0	182339	3.08414931444	0
0	182439	3.086003786899	0
0	182550	3.087898312328	0
0	182743	3.091115799436	0
0	182897	3.09410238151	0
0	183045	3.096560136404	0
0	183310	3.101263086558	0
0	183602	3.106217012738	0
0	183717	3.108079602079	0
0	183817	3.109631054269	0
0	183865	3.110678003295	0
0	184070	3.114225668561	0
0	184293	3.117966618498	0
0	184441	3.120396639515	0
0	184619	3.123420839635	0
0	184839	3.127170629156	0
0	184939	3.129152253137	0
0	185080	3.131686439023	0
0	185258	3.134716793182	0
0	185436	3.138096951294	0
0	185539	3.13950706406	0
0	185724	3.142452503555	0
0	185838	3.144646578761	0
0	186040	3.14780884641	0
0	186130	3.149786514668	0